version 3
run TurtleMobility3-0-20220630-16:11:51-65520
attr configname TurtleMobility3
attr datetime 20220630-16:11:51
attr datetimef 20220630-161151
attr experiment TurtleMobility3
attr inifile omnetpp.ini
attr iterationvars ""
attr iterationvarsd ""
attr iterationvarsf ""
attr measurement ""
attr network MobileNetwork
attr processid 65520
attr repetition 0
attr replication #0
attr resultdir results
attr runnumber 0
attr seedset 0
config image-path ../../images
config network MobileNetwork
config description "random waypoint"
config *.numHosts 2
config **.host*.mobility.typename TurtleMobility
config **.host*.mobility.turtleScript "xmldoc(\"turtle.xml\", \"movements//movement[@id='3']\")"
config sim-time-limit 10day
config *.numHosts 2
config **.constraintAreaMinX 0m
config **.constraintAreaMinY 0m
config **.constraintAreaMinZ 0m
config **.constraintAreaMaxX 600m
config **.constraintAreaMaxY 400m
config **.constraintAreaMaxZ 0m
config **.updateInterval 0.1s
config **.mobility.initFromDisplayString false

vector 0 MobileNetwork.host[0] coordX:vector ETV
attr interpolationmode linear
attr recordingmode vector
attr source xCoord(mobilityPos(mobilityStateChanged))
attr title "coord X"
vector 1 MobileNetwork.host[0] coordY:vector ETV
attr interpolationmode linear
attr recordingmode vector
attr source yCoord(mobilityPos(mobilityStateChanged))
attr title "coord Y"
vector 2 MobileNetwork.host[0] coordZ:vector ETV
attr interpolationmode linear
attr recordingmode vector
attr source zCoord(mobilityPos(mobilityStateChanged))
attr title "coord Z"
vector 3 MobileNetwork.host[1] coordX:vector ETV
attr interpolationmode linear
attr recordingmode vector
attr source xCoord(mobilityPos(mobilityStateChanged))
attr title "coord X"
vector 4 MobileNetwork.host[1] coordY:vector ETV
attr interpolationmode linear
attr recordingmode vector
attr source yCoord(mobilityPos(mobilityStateChanged))
attr title "coord Y"
vector 5 MobileNetwork.host[1] coordZ:vector ETV
attr interpolationmode linear
attr recordingmode vector
attr source zCoord(mobilityPos(mobilityStateChanged))
attr title "coord Z"
0	0	0	329.28810138255
0	0	0	329.28810138255
0	1	0.1	333.19772153036
0	3	0.2	337.10734167817
0	5	0.3	341.01696182598
0	7	0.4	344.92658197379
0	9	0.5	348.8362021216
0	11	0.6	352.74582226941
0	13	0.7	356.65544241722
0	15	0.8	360.56506256502
0	17	0.9	364.47468271283
0	19	1	368.38430286064
0	21	1.1	372.29392300845
0	23	1.2	376.20354315626
0	25	1.3	380.11316330407
0	27	1.4	384.02278345188
0	29	1.5	387.93240359969
0	31	1.6	391.84202374749
0	33	1.7	395.7516438953
0	35	1.8	399.66126404311
0	37	1.9	403.57088419092
0	39	2	407.48050433873
0	41	2.1	411.39012448654
0	43	2.2	415.29974463435
0	45	2.3	419.20936478216
0	47	2.4	423.11898492997
0	49	2.5	427.02860507777
0	51	2.6	430.93822522558
0	53	2.7	434.84784537339
0	55	2.8	438.7574655212
0	57	2.9	442.66708566901
0	59	3	446.57670581682
0	61	3.1	450.48632596463
0	63	3.2	454.39594611244
0	65	3.3	458.30556626024
0	67	3.4	462.21518640805
0	69	3.5	466.12480655586
0	71	3.6	470.03442670367
0	73	3.7	473.94404685148
0	75	3.8	477.85366699929
1	0	0	237.13784655556
1	0	0	237.13784655556
1	1	0.1	235.66022550472
1	3	0.2	234.18260445388
1	5	0.3	232.70498340304
1	7	0.4	231.2273623522
1	9	0.5	229.74974130136
1	11	0.6	228.27212025052
1	13	0.7	226.79449919967
1	15	0.8	225.31687814883
1	17	0.9	223.83925709799
1	19	1	222.36163604715
1	21	1.1	220.88401499631
1	23	1.2	219.40639394547
1	25	1.3	217.92877289463
1	27	1.4	216.45115184379
1	29	1.5	214.97353079295
1	31	1.6	213.49590974211
1	33	1.7	212.01828869127
1	35	1.8	210.54066764042
1	37	1.9	209.06304658958
1	39	2	207.58542553874
1	41	2.1	206.1078044879
1	43	2.2	204.63018343706
1	45	2.3	203.15256238622
1	47	2.4	201.67494133538
1	49	2.5	200.19732028454
1	51	2.6	198.7196992337
1	53	2.7	197.24207818286
1	55	2.8	195.76445713202
1	57	2.9	194.28683608117
1	59	3	192.80921503033
1	61	3.1	191.33159397949
1	63	3.2	189.85397292865
1	65	3.3	188.37635187781
1	67	3.4	186.89873082697
1	69	3.5	185.42110977613
1	71	3.6	183.94348872529
1	73	3.7	182.46586767445
1	75	3.8	180.98824662361
2	0	0	0
2	0	0	0
2	1	0.1	0
2	3	0.2	0
2	5	0.3	0
2	7	0.4	0
2	9	0.5	0
2	11	0.6	0
2	13	0.7	0
2	15	0.8	0
2	17	0.9	0
2	19	1	0
2	21	1.1	0
2	23	1.2	0
2	25	1.3	0
2	27	1.4	0
2	29	1.5	0
2	31	1.6	0
2	33	1.7	0
2	35	1.8	0
2	37	1.9	0
2	39	2	0
2	41	2.1	0
2	43	2.2	0
2	45	2.3	0
2	47	2.4	0
2	49	2.5	0
2	51	2.6	0
2	53	2.7	0
2	55	2.8	0
2	57	2.9	0
2	59	3	0
2	61	3.1	0
2	63	3.2	0
2	65	3.3	0
2	67	3.4	0
2	69	3.5	0
2	71	3.6	0
2	73	3.7	0
2	75	3.8	0
3	0	0	374.13821783848
3	0	0	374.13821783848
3	1	0.1	375.93542476731
3	3	0.2	377.73263169613
3	5	0.3	379.52983862496
3	7	0.4	381.32704555378
3	9	0.5	383.12425248261
3	11	0.6	384.92145941143
3	13	0.7	386.71866634026
3	15	0.8	388.51587326909
3	17	0.9	390.31308019791
3	19	1	392.11028712674
3	21	1.1	393.90749405556
3	23	1.2	395.70470098439
3	25	1.3	397.50190791321
3	27	1.4	399.29911484204
3	29	1.5	401.09632177086
3	31	1.6	402.89352869969
3	33	1.7	404.69073562852
3	35	1.8	406.48794255734
3	37	1.9	408.28514948617
3	39	2	410.08235641499
3	41	2.1	411.87956334382
3	43	2.2	413.67677027264
3	45	2.3	415.47397720147
3	47	2.4	417.27118413029
3	49	2.5	419.06839105912
3	51	2.6	420.86559798795
3	53	2.7	422.66280491677
3	55	2.8	424.4600118456
3	57	2.9	426.25721877442
3	59	3	428.05442570325
3	61	3.1	429.85163263207
3	63	3.2	431.6488395609
3	65	3.3	433.44604648973
3	67	3.4	435.24325341855
3	69	3.5	437.04046034738
3	71	3.6	438.8376672762
3	73	3.7	440.63487420503
3	75	3.8	442.43208113385
4	0	0	258.35764603689
4	0	0	258.35764603689
4	1	0.1	257.04276328454
4	3	0.2	255.72788053218
4	5	0.3	254.41299777983
4	7	0.4	253.09811502747
4	9	0.5	251.78323227512
4	11	0.6	250.46834952276
4	13	0.7	249.15346677041
4	15	0.8	247.83858401806
4	17	0.9	246.5237012657
4	19	1	245.20881851335
4	21	1.1	243.89393576099
4	23	1.2	242.57905300864
4	25	1.3	241.26417025628
4	27	1.4	239.94928750393
4	29	1.5	238.63440475157
4	31	1.6	237.31952199922
4	33	1.7	236.00463924686
4	35	1.8	234.68975649451
4	37	1.9	233.37487374215
4	39	2	232.0599909898
4	41	2.1	230.74510823744
4	43	2.2	229.43022548509
4	45	2.3	228.11534273273
4	47	2.4	226.80045998038
4	49	2.5	225.48557722803
4	51	2.6	224.17069447567
4	53	2.7	222.85581172332
4	55	2.8	221.54092897096
4	57	2.9	220.22604621861
4	59	3	218.91116346625
4	61	3.1	217.5962807139
4	63	3.2	216.28139796154
4	65	3.3	214.96651520919
4	67	3.4	213.65163245683
4	69	3.5	212.33674970448
4	71	3.6	211.02186695212
4	73	3.7	209.70698419977
4	75	3.8	208.39210144741
5	0	0	0
5	0	0	0
5	1	0.1	0
5	3	0.2	0
5	5	0.3	0
5	7	0.4	0
5	9	0.5	0
5	11	0.6	0
5	13	0.7	0
5	15	0.8	0
5	17	0.9	0
5	19	1	0
5	21	1.1	0
5	23	1.2	0
5	25	1.3	0
5	27	1.4	0
5	29	1.5	0
5	31	1.6	0
5	33	1.7	0
5	35	1.8	0
5	37	1.9	0
5	39	2	0
5	41	2.1	0
5	43	2.2	0
5	45	2.3	0
5	47	2.4	0
5	49	2.5	0
5	51	2.6	0
5	53	2.7	0
5	55	2.8	0
5	57	2.9	0
5	59	3	0
5	61	3.1	0
5	63	3.2	0
5	65	3.3	0
5	67	3.4	0
5	69	3.5	0
5	71	3.6	0
5	73	3.7	0
5	75	3.8	0

